 TITLE = "2D Burgers Equation"
 VARIABLES = "X" "Z" "u" "w"
  ZONE F=POINT, I=         100 , J=           50
   0.0000000000000000       -20.000000000000000        0.0000000000000000        0.0000000000000000     
  0.34534632929202291       -20.000000000000000        0.0000000000000000        0.0000000000000000     
   1.0000000000000000       -20.000000000000000        0.0000000000000000        0.0000000000000000     
   1.6546536707079771       -20.000000000000000        0.0000000000000000        0.0000000000000000     
   2.0000000000000000       -20.000000000000000        0.0000000000000000        0.0000000000000000     
   2.0000000000000000       -20.000000000000000        0.0000000000000000        0.0000000000000000     
   2.3453463292920231       -20.000000000000000        0.0000000000000000        0.0000000000000000     
   3.0000000000000000       -20.000000000000000        0.0000000000000000        0.0000000000000000     
   3.6546536707079769       -20.000000000000000        0.0000000000000000        0.0000000000000000     
   4.0000000000000000       -20.000000000000000        0.0000000000000000        0.0000000000000000     
   4.0000000000000000       -20.000000000000000        0.0000000000000000        0.0000000000000000     
   4.3453463292920231       -20.000000000000000        0.0000000000000000        0.0000000000000000     
   5.0000000000000000       -20.000000000000000        0.0000000000000000        0.0000000000000000     
   5.6546536707079769       -20.000000000000000        0.0000000000000000        0.0000000000000000     
   6.0000000000000000       -20.000000000000000        0.0000000000000000        0.0000000000000000     
   6.0000000000000000       -20.000000000000000        0.0000000000000000        0.0000000000000000     
   6.3453463292920231       -20.000000000000000        0.0000000000000000        0.0000000000000000     
   7.0000000000000000       -20.000000000000000        0.0000000000000000        0.0000000000000000     
   7.6546536707079769       -20.000000000000000        0.0000000000000000        0.0000000000000000     
   8.0000000000000000       -20.000000000000000        0.0000000000000000        0.0000000000000000     
   8.0000000000000000       -20.000000000000000        0.0000000000000000        0.0000000000000000     
   8.3453463292920222       -20.000000000000000        0.0000000000000000        0.0000000000000000     
   9.0000000000000000       -20.000000000000000        0.0000000000000000        0.0000000000000000     
   9.6546536707079778       -20.000000000000000        0.0000000000000000        0.0000000000000000     
   10.000000000000000       -20.000000000000000        0.0000000000000000        0.0000000000000000     
   10.000000000000000       -20.000000000000000        0.0000000000000000        0.0000000000000000     
   10.345346329292022       -20.000000000000000        0.0000000000000000        0.0000000000000000     
   11.000000000000000       -20.000000000000000        0.0000000000000000        0.0000000000000000     
   11.654653670707978       -20.000000000000000        0.0000000000000000        0.0000000000000000     
   12.000000000000000       -20.000000000000000        0.0000000000000000        0.0000000000000000     
   12.000000000000000       -20.000000000000000        0.0000000000000000        0.0000000000000000     
   12.345346329292022       -20.000000000000000        0.0000000000000000        0.0000000000000000     
   13.000000000000000       -20.000000000000000        0.0000000000000000        0.0000000000000000     
   13.654653670707978       -20.000000000000000        0.0000000000000000        0.0000000000000000     
   14.000000000000000       -20.000000000000000        0.0000000000000000        0.0000000000000000     
   14.000000000000000       -20.000000000000000        0.0000000000000000        0.0000000000000000     
   14.345346329292022       -20.000000000000000        0.0000000000000000        0.0000000000000000     
   15.000000000000000       -20.000000000000000        0.0000000000000000        0.0000000000000000     
   15.654653670707978       -20.000000000000000        0.0000000000000000        0.0000000000000000     
   16.000000000000000       -20.000000000000000        0.0000000000000000        0.0000000000000000     
   16.000000000000000       -20.000000000000000        0.0000000000000000        0.0000000000000000     
   16.345346329292024       -20.000000000000000        0.0000000000000000        0.0000000000000000     
   17.000000000000000       -20.000000000000000        0.0000000000000000        0.0000000000000000     
   17.654653670707976       -20.000000000000000        0.0000000000000000        0.0000000000000000     
   18.000000000000000       -20.000000000000000        0.0000000000000000        0.0000000000000000     
   18.000000000000000       -20.000000000000000        0.0000000000000000        0.0000000000000000     
   18.345346329292024       -20.000000000000000        0.0000000000000000        0.0000000000000000     
   19.000000000000000       -20.000000000000000        0.0000000000000000        0.0000000000000000     
   19.654653670707976       -20.000000000000000        0.0000000000000000        0.0000000000000000     
   20.000000000000000       -20.000000000000000        0.0000000000000000        0.0000000000000000     
   20.000000000000000       -20.000000000000000        0.0000000000000000        0.0000000000000000     
   20.345346329292024       -20.000000000000000        0.0000000000000000        0.0000000000000000     
   21.000000000000000       -20.000000000000000        0.0000000000000000        0.0000000000000000     
   21.654653670707976       -20.000000000000000        0.0000000000000000        0.0000000000000000     
   22.000000000000000       -20.000000000000000        0.0000000000000000        0.0000000000000000     
   22.000000000000000       -20.000000000000000        0.0000000000000000        0.0000000000000000     
   22.345346329292024       -20.000000000000000        0.0000000000000000        0.0000000000000000     
   23.000000000000000       -20.000000000000000        0.0000000000000000        0.0000000000000000     
   23.654653670707976       -20.000000000000000        0.0000000000000000        0.0000000000000000     
   24.000000000000000       -20.000000000000000        0.0000000000000000        0.0000000000000000     
   24.000000000000000       -20.000000000000000        0.0000000000000000        0.0000000000000000     
   24.345346329292024       -20.000000000000000        0.0000000000000000        0.0000000000000000     
   25.000000000000000       -20.000000000000000        0.0000000000000000        0.0000000000000000     
   25.654653670707976       -20.000000000000000        0.0000000000000000        0.0000000000000000     
   26.000000000000000       -20.000000000000000        0.0000000000000000        0.0000000000000000     
   26.000000000000000       -20.000000000000000        0.0000000000000000        0.0000000000000000     
   26.345346329292024       -20.000000000000000        0.0000000000000000        0.0000000000000000     
   27.000000000000000       -20.000000000000000        0.0000000000000000        0.0000000000000000     
   27.654653670707976       -20.000000000000000        0.0000000000000000        0.0000000000000000     
   28.000000000000000       -20.000000000000000        0.0000000000000000        0.0000000000000000     
   28.000000000000000       -20.000000000000000        0.0000000000000000        0.0000000000000000     
   28.345346329292024       -20.000000000000000        0.0000000000000000        0.0000000000000000     
   29.000000000000000       -20.000000000000000        0.0000000000000000        0.0000000000000000     
   29.654653670707976       -20.000000000000000        0.0000000000000000        0.0000000000000000     
   30.000000000000000       -20.000000000000000        0.0000000000000000        0.0000000000000000     
   30.000000000000000       -20.000000000000000        0.0000000000000000        0.0000000000000000     
   30.345346329292024       -20.000000000000000        0.0000000000000000        0.0000000000000000     
   31.000000000000000       -20.000000000000000        0.0000000000000000        0.0000000000000000     
   31.654653670707976       -20.000000000000000        0.0000000000000000        0.0000000000000000     
   32.000000000000000       -20.000000000000000        0.0000000000000000        0.0000000000000000     
   32.000000000000000       -20.000000000000000        0.0000000000000000        0.0000000000000000     
   32.345346329292020       -20.000000000000000        0.0000000000000000        0.0000000000000000     
   33.000000000000000       -20.000000000000000        0.0000000000000000        0.0000000000000000     
   33.654653670707980       -20.000000000000000        0.0000000000000000        0.0000000000000000     
   34.000000000000000       -20.000000000000000        0.0000000000000000        0.0000000000000000     
   34.000000000000000       -20.000000000000000        0.0000000000000000        0.0000000000000000     
   34.345346329292020       -20.000000000000000        0.0000000000000000        0.0000000000000000     
   35.000000000000000       -20.000000000000000        0.0000000000000000        0.0000000000000000     
   35.654653670707980       -20.000000000000000        0.0000000000000000        0.0000000000000000     
   36.000000000000000       -20.000000000000000        0.0000000000000000        0.0000000000000000     
   36.000000000000000       -20.000000000000000        0.0000000000000000        0.0000000000000000     
   36.345346329292020       -20.000000000000000        0.0000000000000000        0.0000000000000000     
   37.000000000000000       -20.000000000000000        0.0000000000000000        0.0000000000000000     
   37.654653670707980       -20.000000000000000        0.0000000000000000        0.0000000000000000     
   38.000000000000000       -20.000000000000000        0.0000000000000000        0.0000000000000000     
   38.000000000000000       -20.000000000000000        0.0000000000000000        0.0000000000000000     
   38.345346329292020       -20.000000000000000        0.0000000000000000        0.0000000000000000     
   39.000000000000000       -20.000000000000000        0.0000000000000000        0.0000000000000000     
   39.654653670707980       -20.000000000000000        0.0000000000000000        0.0000000000000000     
   40.000000000000000       -20.000000000000000        0.0000000000000000        0.0000000000000000     
   0.0000000000000000       -19.784158544192486        0.0000000000000000        0.0000000000000000     
  0.34534632929202291       -19.784158544192486        0.0000000000000000        0.0000000000000000     
   1.0000000000000000       -19.784158544192486        0.0000000000000000        0.0000000000000000     
   1.6546536707079771       -19.784158544192486        0.0000000000000000        0.0000000000000000     
   2.0000000000000000       -19.784158544192486        0.0000000000000000        0.0000000000000000     
   2.0000000000000000       -19.784158544192486        0.0000000000000000        0.0000000000000000     
   2.3453463292920231       -19.784158544192486        0.0000000000000000        0.0000000000000000     
   3.0000000000000000       -19.784158544192486        0.0000000000000000        0.0000000000000000     
   3.6546536707079769       -19.784158544192486        0.0000000000000000        0.0000000000000000     
   4.0000000000000000       -19.784158544192486        0.0000000000000000        0.0000000000000000     
   4.0000000000000000       -19.784158544192486        0.0000000000000000        0.0000000000000000     
   4.3453463292920231       -19.784158544192486        0.0000000000000000        0.0000000000000000     
   5.0000000000000000       -19.784158544192486        0.0000000000000000        0.0000000000000000     
   5.6546536707079769       -19.784158544192486        0.0000000000000000        0.0000000000000000     
   6.0000000000000000       -19.784158544192486        0.0000000000000000        0.0000000000000000     
   6.0000000000000000       -19.784158544192486        0.0000000000000000        0.0000000000000000     
   6.3453463292920231       -19.784158544192486        0.0000000000000000        0.0000000000000000     
   7.0000000000000000       -19.784158544192486        0.0000000000000000        0.0000000000000000     
   7.6546536707079769       -19.784158544192486        0.0000000000000000        0.0000000000000000     
   8.0000000000000000       -19.784158544192486        0.0000000000000000        0.0000000000000000     
   8.0000000000000000       -19.784158544192486        0.0000000000000000        0.0000000000000000     
   8.3453463292920222       -19.784158544192486        0.0000000000000000        0.0000000000000000     
   9.0000000000000000       -19.784158544192486        0.0000000000000000        0.0000000000000000     
   9.6546536707079778       -19.784158544192486        0.0000000000000000        0.0000000000000000     
   10.000000000000000       -19.784158544192486        0.0000000000000000        0.0000000000000000     
   10.000000000000000       -19.784158544192486        0.0000000000000000        0.0000000000000000     
   10.345346329292022       -19.784158544192486        0.0000000000000000        0.0000000000000000     
   11.000000000000000       -19.784158544192486        0.0000000000000000        0.0000000000000000     
   11.654653670707978       -19.784158544192486        0.0000000000000000        0.0000000000000000     
   12.000000000000000       -19.784158544192486        0.0000000000000000        0.0000000000000000     
   12.000000000000000       -19.784158544192486        0.0000000000000000        0.0000000000000000     
   12.345346329292022       -19.784158544192486        0.0000000000000000        0.0000000000000000     
   13.000000000000000       -19.784158544192486        0.0000000000000000        0.0000000000000000     
   13.654653670707978       -19.784158544192486        0.0000000000000000        0.0000000000000000     
   14.000000000000000       -19.784158544192486        0.0000000000000000        0.0000000000000000     
   14.000000000000000       -19.784158544192486        0.0000000000000000        0.0000000000000000     
   14.345346329292022       -19.784158544192486        0.0000000000000000        0.0000000000000000     
   15.000000000000000       -19.784158544192486        0.0000000000000000        0.0000000000000000     
   15.654653670707978       -19.784158544192486        0.0000000000000000        0.0000000000000000     
   16.000000000000000       -19.784158544192486        0.0000000000000000        0.0000000000000000     
   16.000000000000000       -19.784158544192486        0.0000000000000000        0.0000000000000000     
   16.345346329292024       -19.784158544192486        0.0000000000000000        0.0000000000000000     
   17.000000000000000       -19.784158544192486        0.0000000000000000        0.0000000000000000     
   17.654653670707976       -19.784158544192486        0.0000000000000000        0.0000000000000000     
   18.000000000000000       -19.784158544192486        0.0000000000000000        0.0000000000000000     
   18.000000000000000       -19.784158544192486        0.0000000000000000        0.0000000000000000     
   18.345346329292024       -19.784158544192486        0.0000000000000000        0.0000000000000000     
   19.000000000000000       -19.784158544192486        0.0000000000000000        0.0000000000000000     
   19.654653670707976       -19.784158544192486        0.0000000000000000        0.0000000000000000     
   20.000000000000000       -19.784158544192486        0.0000000000000000        0.0000000000000000     
   20.000000000000000       -19.784158544192486        0.0000000000000000        0.0000000000000000     
   20.345346329292024       -19.784158544192486        0.0000000000000000        0.0000000000000000     
   21.000000000000000       -19.784158544192486        0.0000000000000000        0.0000000000000000     
   21.654653670707976       -19.784158544192486        0.0000000000000000        0.0000000000000000     
   22.000000000000000       -19.784158544192486        0.0000000000000000        0.0000000000000000     
   22.000000000000000       -19.784158544192486        0.0000000000000000        0.0000000000000000     
   22.345346329292024       -19.784158544192486        0.0000000000000000        0.0000000000000000     
   23.000000000000000       -19.784158544192486        0.0000000000000000        0.0000000000000000     
   23.654653670707976       -19.784158544192486        0.0000000000000000        0.0000000000000000     
   24.000000000000000       -19.784158544192486        0.0000000000000000        0.0000000000000000     
   24.000000000000000       -19.784158544192486        0.0000000000000000        0.0000000000000000     
   24.345346329292024       -19.784158544192486        0.0000000000000000        0.0000000000000000     
   25.000000000000000       -19.784158544192486        0.0000000000000000        0.0000000000000000     
   25.654653670707976       -19.784158544192486        0.0000000000000000        0.0000000000000000     
   26.000000000000000       -19.784158544192486        0.0000000000000000        0.0000000000000000     
   26.000000000000000       -19.784158544192486        0.0000000000000000        0.0000000000000000     
   26.345346329292024       -19.784158544192486        0.0000000000000000        0.0000000000000000     
   27.000000000000000       -19.784158544192486        0.0000000000000000        0.0000000000000000     
   27.654653670707976       -19.784158544192486        0.0000000000000000        0.0000000000000000     
   28.000000000000000       -19.784158544192486        0.0000000000000000        0.0000000000000000     
   28.000000000000000       -19.784158544192486        0.0000000000000000        0.0000000000000000     
   28.345346329292024       -19.784158544192486        0.0000000000000000        0.0000000000000000     
   29.000000000000000       -19.784158544192486        0.0000000000000000        0.0000000000000000     
   29.654653670707976       -19.784158544192486        0.0000000000000000        0.0000000000000000     
   30.000000000000000       -19.784158544192486        0.0000000000000000        0.0000000000000000     
   30.000000000000000       -19.784158544192486        0.0000000000000000        0.0000000000000000     
   30.345346329292024       -19.784158544192486        0.0000000000000000        0.0000000000000000     
   31.000000000000000       -19.784158544192486        0.0000000000000000        0.0000000000000000     
   31.654653670707976       -19.784158544192486        0.0000000000000000        0.0000000000000000     
   32.000000000000000       -19.784158544192486        0.0000000000000000        0.0000000000000000     
   32.000000000000000       -19.784158544192486        0.0000000000000000        0.0000000000000000     
   32.345346329292020       -19.784158544192486        0.0000000000000000        0.0000000000000000     
   33.000000000000000       -19.784158544192486        0.0000000000000000        0.0000000000000000     
   33.654653670707980       -19.784158544192486        0.0000000000000000        0.0000000000000000     
   34.000000000000000       -19.784158544192486        0.0000000000000000        0.0000000000000000     
   34.000000000000000       -19.784158544192486        0.0000000000000000        0.0000000000000000     
   34.345346329292020       -19.784158544192486        0.0000000000000000        0.0000000000000000     
   35.000000000000000       -19.784158544192486        0.0000000000000000        0.0000000000000000     
   35.654653670707980       -19.784158544192486        0.0000000000000000        0.0000000000000000     
   36.000000000000000       -19.784158544192486        0.0000000000000000        0.0000000000000000     
   36.000000000000000       -19.784158544192486        0.0000000000000000        0.0000000000000000     
   36.345346329292020       -19.784158544192486        0.0000000000000000        0.0000000000000000     
   37.000000000000000       -19.784158544192486        0.0000000000000000        0.0000000000000000     
   37.654653670707980       -19.784158544192486        0.0000000000000000        0.0000000000000000     
   38.000000000000000       -19.784158544192486        0.0000000000000000        0.0000000000000000     
   38.000000000000000       -19.784158544192486        0.0000000000000000        0.0000000000000000     
   38.345346329292020       -19.784158544192486        0.0000000000000000        0.0000000000000000     
   39.000000000000000       -19.784158544192486        0.0000000000000000        0.0000000000000000     
   39.654653670707980       -19.784158544192486        0.0000000000000000        0.0000000000000000     
   40.000000000000000       -19.784158544192486        0.0000000000000000        0.0000000000000000     
   0.0000000000000000       -19.375000000000000        0.0000000000000000        0.0000000000000000     
  0.34534632929202291       -19.375000000000000        0.0000000000000000        0.0000000000000000     
   1.0000000000000000       -19.375000000000000        0.0000000000000000        0.0000000000000000     
   1.6546536707079771       -19.375000000000000        0.0000000000000000        0.0000000000000000     
   2.0000000000000000       -19.375000000000000        0.0000000000000000        0.0000000000000000     
   2.0000000000000000       -19.375000000000000        0.0000000000000000        0.0000000000000000     
   2.3453463292920231       -19.375000000000000        0.0000000000000000        0.0000000000000000     
   3.0000000000000000       -19.375000000000000        0.0000000000000000        0.0000000000000000     
   3.6546536707079769       -19.375000000000000        0.0000000000000000        0.0000000000000000     
   4.0000000000000000       -19.375000000000000        0.0000000000000000        0.0000000000000000     
   4.0000000000000000       -19.375000000000000        0.0000000000000000        0.0000000000000000     
   4.3453463292920231       -19.375000000000000        0.0000000000000000        0.0000000000000000     
   5.0000000000000000       -19.375000000000000        0.0000000000000000        0.0000000000000000     
   5.6546536707079769       -19.375000000000000        0.0000000000000000        0.0000000000000000     
   6.0000000000000000       -19.375000000000000        0.0000000000000000        0.0000000000000000     
   6.0000000000000000       -19.375000000000000        0.0000000000000000        0.0000000000000000     
   6.3453463292920231       -19.375000000000000        0.0000000000000000        0.0000000000000000     
   7.0000000000000000       -19.375000000000000        0.0000000000000000        0.0000000000000000     
   7.6546536707079769       -19.375000000000000        0.0000000000000000        0.0000000000000000     
   8.0000000000000000       -19.375000000000000        0.0000000000000000        0.0000000000000000     
   8.0000000000000000       -19.375000000000000        0.0000000000000000        0.0000000000000000     
   8.3453463292920222       -19.375000000000000        0.0000000000000000        0.0000000000000000     
   9.0000000000000000       -19.375000000000000        0.0000000000000000        0.0000000000000000     
   9.6546536707079778       -19.375000000000000        0.0000000000000000        0.0000000000000000     
   10.000000000000000       -19.375000000000000        0.0000000000000000        0.0000000000000000     
   10.000000000000000       -19.375000000000000        0.0000000000000000        0.0000000000000000     
   10.345346329292022       -19.375000000000000        0.0000000000000000        0.0000000000000000     
   11.000000000000000       -19.375000000000000        0.0000000000000000        0.0000000000000000     
   11.654653670707978       -19.375000000000000        0.0000000000000000        0.0000000000000000     
   12.000000000000000       -19.375000000000000        0.0000000000000000        0.0000000000000000     
   12.000000000000000       -19.375000000000000        0.0000000000000000        0.0000000000000000     
   12.345346329292022       -19.375000000000000        0.0000000000000000        0.0000000000000000     
   13.000000000000000       -19.375000000000000        0.0000000000000000        0.0000000000000000     
   13.654653670707978       -19.375000000000000        0.0000000000000000        0.0000000000000000     
   14.000000000000000       -19.375000000000000        0.0000000000000000        0.0000000000000000     
   14.000000000000000       -19.375000000000000        0.0000000000000000        0.0000000000000000     
   14.345346329292022       -19.375000000000000        0.0000000000000000        0.0000000000000000     
   15.000000000000000       -19.375000000000000        0.0000000000000000        0.0000000000000000     
   15.654653670707978       -19.375000000000000        0.0000000000000000        0.0000000000000000     
   16.000000000000000       -19.375000000000000        0.0000000000000000        0.0000000000000000     
   16.000000000000000       -19.375000000000000        0.0000000000000000        0.0000000000000000     
   16.345346329292024       -19.375000000000000        0.0000000000000000        0.0000000000000000     
   17.000000000000000       -19.375000000000000        0.0000000000000000        0.0000000000000000     
   17.654653670707976       -19.375000000000000        0.0000000000000000        0.0000000000000000     
   18.000000000000000       -19.375000000000000        0.0000000000000000        0.0000000000000000     
   18.000000000000000       -19.375000000000000        0.0000000000000000        0.0000000000000000     
   18.345346329292024       -19.375000000000000        0.0000000000000000        0.0000000000000000     
   19.000000000000000       -19.375000000000000        0.0000000000000000        0.0000000000000000     
   19.654653670707976       -19.375000000000000        0.0000000000000000        0.0000000000000000     
   20.000000000000000       -19.375000000000000        0.0000000000000000        0.0000000000000000     
   20.000000000000000       -19.375000000000000        0.0000000000000000        0.0000000000000000     
   20.345346329292024       -19.375000000000000        0.0000000000000000        0.0000000000000000     
   21.000000000000000       -19.375000000000000        0.0000000000000000        0.0000000000000000     
   21.654653670707976       -19.375000000000000        0.0000000000000000        0.0000000000000000     
   22.000000000000000       -19.375000000000000        0.0000000000000000        0.0000000000000000     
   22.000000000000000       -19.375000000000000        0.0000000000000000        0.0000000000000000     
   22.345346329292024       -19.375000000000000        0.0000000000000000        0.0000000000000000     
   23.000000000000000       -19.375000000000000        0.0000000000000000        0.0000000000000000     
   23.654653670707976       -19.375000000000000        0.0000000000000000        0.0000000000000000     
   24.000000000000000       -19.375000000000000        0.0000000000000000        0.0000000000000000     
   24.000000000000000       -19.375000000000000        0.0000000000000000        0.0000000000000000     
   24.345346329292024       -19.375000000000000        0.0000000000000000        0.0000000000000000     
   25.000000000000000       -19.375000000000000        0.0000000000000000        0.0000000000000000     
   25.654653670707976       -19.375000000000000        0.0000000000000000        0.0000000000000000     
   26.000000000000000       -19.375000000000000        0.0000000000000000        0.0000000000000000     
   26.000000000000000       -19.375000000000000        0.0000000000000000        0.0000000000000000     
   26.345346329292024       -19.375000000000000        0.0000000000000000        0.0000000000000000     
   27.000000000000000       -19.375000000000000        0.0000000000000000        0.0000000000000000     
   27.654653670707976       -19.375000000000000        0.0000000000000000        0.0000000000000000     
   28.000000000000000       -19.375000000000000        0.0000000000000000        0.0000000000000000     
   28.000000000000000       -19.375000000000000        0.0000000000000000        0.0000000000000000     
   28.345346329292024       -19.375000000000000        0.0000000000000000        0.0000000000000000     
   29.000000000000000       -19.375000000000000        0.0000000000000000        0.0000000000000000     
   29.654653670707976       -19.375000000000000        0.0000000000000000        0.0000000000000000     
   30.000000000000000       -19.375000000000000        0.0000000000000000        0.0000000000000000     
   30.000000000000000       -19.375000000000000        0.0000000000000000        0.0000000000000000     
   30.345346329292024       -19.375000000000000        0.0000000000000000        0.0000000000000000     
   31.000000000000000       -19.375000000000000        0.0000000000000000        0.0000000000000000     
   31.654653670707976       -19.375000000000000        0.0000000000000000        0.0000000000000000     
   32.000000000000000       -19.375000000000000        0.0000000000000000        0.0000000000000000     
   32.000000000000000       -19.375000000000000        0.0000000000000000        0.0000000000000000     
   32.345346329292020       -19.375000000000000        0.0000000000000000        0.0000000000000000     
   33.000000000000000       -19.375000000000000        0.0000000000000000        0.0000000000000000     
   33.654653670707980       -19.375000000000000        0.0000000000000000        0.0000000000000000     